<?xml version="1.0"?>
<VTKFile type="UnstructuredGrid" version="2.2">
  <UnstructuredGrid>
    <Piece NumberOfPoints="6666" NumberOfCells="5000">
      <Points>
        <DataArray type="Float64" NumberOfComponents="3" format="ascii">-0.25 0 -0.5 -0.15 0 -0.5 -0.25 0.2 -0.5 -0.15 0.2 -0.5 -0.25 0 -0.4 -0.15 0 -0.4 -0.25 0.2 -0.4 -0.15 0.2 -0.4 -0.04999999999999999 0 -0.5 -0.04999999999999999 0.2 -0.5 -0.04999999999999999 0 -0.4 -0.04999999999999999 0.2 -0.4 -0.25 0.4 -0.5 -0.15 0.4 -0.5 -0.25 0.4 -0.4 -0.15 0.4 -0.4 -0.25 0 -0.3 -0.15 0 -0.3 -0.25 0.2 -0.3 -0.15 0.2 -0.3 0.05000000000000004 0 -0.5 0.05000000000000004 0.2 -0.5 0.05000000000000004 0 -0.4 0.05000000000000004 0.2 -0.4 -0.04999999999999999 0.4 -0.5 -0.04999999999999999 0.4 -0.4 -0.04999999999999999 0 -0.3 -0.04999999999999999 0.2 -0.3 -0.25 0.6000000000000001 -0.5 -0.15 0.6000000000000001 -0.5 -0.25 0.6000000000000001 -0.4 -0.15 0.6000000000000001 -0.4 -0.25 0.4 -0.3 -0.15 0.4 -0.3 -0.25 0 -0.2 -0.15 0 -0.2 -0.25 0.2 -0.2 -0.15 0.2 -0.2 0.15 0 -0.5 0.15 0.2 -0.5 0.15 0 -0.4 0.15 0.2 -0.4 0.05000000000000004 0.4 -0.5 0.05000000000000004 0.4 -0.4 0.05000000000000004 0 -0.3 0.05000000000000004 0.2 -0.3 -0.04999999999999999 0.6000000000000001 -0.5 -0.04999999999999999 0.6000000000000001 -0.4 -0.04999999999999999 0.4 -0.3 -0.04999999999999999 0 -0.2 -0.04999999999999999 0.2 -0.2 -0.25 0.8 -0.5 -0.15 0.8 -0.5 -0.25 0.8 -0.4 -0.15 0.8 -0.4 -0.25 0.6000000000000001 -0.3 -0.15 0.6000000000000001 -0.3 -0.25 0.4 -0.2 -0.15 0.4 -0.2 -0.25 0 -0.09999999999999998 -0.15 0 -0.09999999999999998 -0.25 0.2 -0.09999999999999998 -0.15 0.2 -0.09999999999999998 0.25 0 -0.5 0.25 0.2 -0.5 0.25 0 -0.4 0.25 0.2 -0.4 0.15 0.4 -0.5 0.15 0.4 -0.4 0.15 0 -0.3 0.15 0.2 -0.3 0.05000000000000004 0.6000000000000001 -0.5 0.05000000000000004 0.6000000000000001 -0.4 0.05000000000000004 0.4 -0.3 0.05000000000000004 0 -0.2 0.05000000000000004 0.2 -0.2 -0.04999999999999999 0.8 -0.5 -0.04999999999999999 0.8 -0.4 -0.04999999999999999 0.6000000000000001 -0.3 -0.04999999999999999 0.4 -0.2 -0.04999999999999999 0 -0.09999999999999998 -0.04999999999999999 0.2 -0.09999999999999998 -0.25 1 -0.5 -0.15 1 -0.5 -0.25 1 -0.4 -0.15 1 -0.4 -0.25 0.8 -0.3 -0.15 0.8 -0.3 -0.25 0.6000000000000001 -0.2 -0.15 0.6000000000000001 -0.2 -0.25 0.4 -0.09999999999999998 -0.15 0.4 -0.09999999999999998 -0.25 0 0 -0.15 0 0 -0.25 0.2 0 -0.15 0.2 0 0.25 0.4 -0.5 0.25 0.4 -0.4 0.25 0 -0.3 0.25 0.2 -0.3 0.15 0.6000000000000001 -0.5 0.15 0.6000000000000001 -0.4 0.15 0.4 -0.3 0.15 0 -0.2 0.15 0.2 -0.2 0.05000000000000004 0.8 -0.5 0.05000000000000004 0.8 -0.4 0.05000000000000004 0.6000000000000001 -0.3 0.05000000000000004 0.4 -0.2 0.05000000000000004 0 -0.09999999999999998 0.05000000000000004 0.2 -0.09999999999999998 -0.04999999999999999 1 -0.5 -0.04999999999999999 1 -0.4 -0.04999999999999999 0.8 -0.3 -0.04999999999999999 0.6000000000000001 -0.2 -0.04999999999999999 0.4 -0.09999999999999998 -0.04999999999999999 0 0 -0.04999999999999999 0.2 0 -0.25 1.2 -0.5 -0.15 1.2 -0.5 -0.25 1.2 -0.4 -0.15 1.2 -0.4 -0.25 1 -0.3 -0.15 1 -0.3 -0.25 0.8 -0.2 -0.15 0.8 -0.2 -0.25 0.6000000000000001 -0.09999999999999998 -0.15 0.6000000000000001 -0.09999999999999998 -0.25 0.4 0 -0.15 0.4 0 -0.25 0 0.1000000000000001 -0.15 0 0.1000000000000001 -0.25 0.2 0.1000000000000001 -0.15 0.2 0.1000000000000001 0.25 0.6000000000000001 -0.5 0.25 0.6000000000000001 -0.4 0.25 0.4 -0.3 0.25 0 -0.2 0.25 0.2 -0.2 0.15 0.8 -0.5 0.15 0.8 -0.4 0.15 0.6000000000000001 -0.3 0.15 0.4 -0.2 0.15 0 -0.09999999999999998 0.15 0.2 -0.09999999999999998 0.05000000000000004 1 -0.5 0.05000000000000004 1 -0.4 0.05000000000000004 0.8 -0.3 0.05000000000000004 0.6000000000000001 -0.2 0.05000000000000004 0.4 -0.09999999999999998 0.05000000000000004 0 0 0.05000000000000004 0.2 0 -0.04999999999999999 1.2 -0.5 -0.04999999999999999 1.2 -0.4 -0.04999999999999999 1 -0.3 -0.04999999999999999 0.8 -0.2 -0.04999999999999999 0.6000000000000001 -0.09999999999999998 -0.04999999999999999 0.4 0 -0.04999999999999999 0 0.1000000000000001 -0.04999999999999999 0.2 0.1000000000000001 -0.25 1.4 -0.5 -0.15 1.4 -0.5 -0.25 1.4 -0.4 -0.15 1.4 -0.4 -0.25 1.2 -0.3 -0.15 1.2 -0.3 -0.25 1 -0.2 -0.15 1 -0.2 -0.25 0.8 -0.09999999999999998 -0.15 0.8 -0.09999999999999998 -0.25 0.6000000000000001 0 -0.15 0.6000000000000001 0 -0.25 0.4 0.1000000000000001 -0.15 0.4 0.1000000000000001 -0.25 0 0.2000000000000001 -0.15 0 0.2000000000000001 -0.25 0.2 0.2000000000000001 -0.15 0.2 0.2000000000000001 0.25 0.8 -0.5 0.25 0.8 -0.4 0.25 0.6000000000000001 -0.3 0.25 0.4 -0.2 0.25 0 -0.09999999999999998 0.25 0.2 -0.09999999999999998 0.15 1 -0.5 0.15 1 -0.4 0.15 0.8 -0.3 0.15 0.6000000000000001 -0.2 0.15 0.4 -0.09999999999999998 0.15 0 0 0.15 0.2 0 0.05000000000000004 1.2 -0.5 0.05000000000000004 1.2 -0.4 0.05000000000000004 1 -0.3 0.05000000000000004 0.8 -0.2 0.05000000000000004 0.6000000000000001 -0.09999999999999998 0.05000000000000004 0.4 0 0.05000000000000004 0 0.1000000000000001 0.05000000000000004 0.2 0.1000000000000001 -0.04999999999999999 1.4 -0.5 -0.04999999999999999 1.4 -0.4 -0.04999999999999999 1.2 -0.3 -0.04999999999999999 1 -0.2 -0.04999999999999999 0.8 -0.09999999999999998 -0.04999999999999999 0.6000000000000001 0 -0.04999999999999999 0.4 0.1000000000000001 -0.04999999999999999 0 0.2000000000000001 -0.04999999999999999 0.2 0.2000000000000001 -0.25 1.6 -0.5 -0.15 1.6 -0.5 -0.25 1.6 -0.4 -0.15 1.6 -0.4 -0.25 1.4 -0.3 -0.15 1.4 -0.3 -0.25 1.2 -0.2 -0.15 1.2 -0.2 -0.25 1 -0.09999999999999998 -0.15 1 -0.09999999999999998 -0.25 0.8 0 -0.15 0.8 0 -0.25 0.6000000000000001 0.1000000000000001 -0.15 0.6000000000000001 0.1000000000000001 -0.25 0.4 0.2000000000000001 -0.15 0.4 0.2000000000000001 -0.25 0 0.3 -0.15 0 0.3 -0.25 0.2 0.3 -0.15 0.2 0.3 0.25 1 -0.5 0.25 1 -0.4 0.25 0.8 -0.3 0.25 0.6000000000000001 -0.2 0.25 0.4 -0.09999999999999998 0.25 0 0 0.25 0.2 0 0.15 1.2 -0.5 0.15 1.2 -0.4 0.15 1 -0.3 0.15 0.8 -0.2 0.15 0.6000000000000001 -0.09999999999999998 0.15 0.4 0 0.15 0 0.1000000000000001 0.15 0.2 0.1000000000000001 0.05000000000000004 1.4 -0.5 0.05000000000000004 1.4 -0.4 0.05000000000000004 1.2 -0.3 0.05000000000000004 1 -0.2 0.05000000000000004 0.8 -0.09999999999999998 0.05000000000000004 0.6000000000000001 0 0.05000000000000004 0.4 0.1000000000000001 0.05000000000000004 0 0.2000000000000001 0.05000000000000004 0.2 0.2000000000000001 -0.04999999999999999 1.6 -0.5 -0.04999999999999999 1.6 -0.4 -0.04999999999999999 1.4 -0.3 -0.04999999999999999 1.2 -0.2 -0.04999999999999999 1 -0.09999999999999998 -0.04999999999999999 0.8 0 -0.04999999999999999 0.6000000000000001 0.1000000000000001 -0.04999999999999999 0.4 0.2000000000000001 -0.04999999999999999 0 0.3 -0.04999999999999999 0.2 0.3 -0.25 1.8 -0.5 -0.15 1.8 -0.5 -0.25 1.8 -0.4 -0.15 1.8 -0.4 -0.25 1.6 -0.3 -0.15 1.6 -0.3 -0.25 1.4 -0.2 -0.15 1.4 -0.2 -0.25 1.2 -0.09999999999999998 -0.15 1.2 -0.09999999999999998 -0.25 1 0 -0.15 1 0 -0.25 0.8 0.1000000000000001 -0.15 0.8 0.1000000000000001 -0.25 0.6000000000000001 0.2000000000000001 -0.15 0.6000000000000001 0.2000000000000001 -0.25 0.4 0.3 -0.15 0.4 0.3 -0.25 0 0.4 -0.15 0 0.4 -0.25 0.2 0.4 -0.15 0.2 0.4 0.25 1.2 -0.5 0.25 1.2 -0.4 0.25 1 -0.3 0.25 0.8 -0.2 0.25 0.6000000000000001 -0.09999999999999998 0.25 0.4 0 0.25 0 0.1000000000000001 0.25 0.2 0.1000000000000001 0.15 1.4 -0.5 0.15 1.4 -0.4 0.15 1.2 -0.3 0.15 1 -0.2 0.15 0.8 -0.09999999999999998 0.15 0.6000000000000001 0 0.15 0.4 0.1000000000000001 0.15 0 0.2000000000000001 0.15 0.2 0.2000000000000001 0.05000000000000004 1.6 -0.5 0.05000000000000004 1.6 -0.4 0.05000000000000004 1.4 -0.3 0.05000000000000004 1.2 -0.2 0.05000000000000004 1 -0.09999999999999998 0.05000000000000004 0.8 0 0.05000000000000004 0.6000000000000001 0.1000000000000001 0.05000000000000004 0.4 0.2000000000000001 0.05000000000000004 0 0.3 0.05000000000000004 0.2 0.3 -0.04999999999999999 1.8 -0.5 -0.04999999999999999 1.8 -0.4 -0.04999999999999999 1.6 -0.3 -0.04999999999999999 1.4 -0.2 -0.04999999999999999 1.2 -0.09999999999999998 -0.04999999999999999 1 0 -0.04999999999999999 0.8 0.1000000000000001 -0.04999999999999999 0.6000000000000001 0.2000000000000001 -0.04999999999999999 0.4 0.3 -0.04999999999999999 0 0.4 -0.04999999999999999 0.2 0.4 -0.25 2 -0.5 -0.15 2 -0.5 -0.25 2 -0.4 -0.15 2 -0.4 -0.25 1.8 -0.3 -0.15 1.8 -0.3 -0.25 1.6 -0.2 -0.15 1.6 -0.2 -0.25 1.4 -0.09999999999999998 -0.15 1.4 -0.09999999999999998 -0.25 1.2 0 -0.15 1.2 0 -0.25 1 0.1000000000000001 -0.15 1 0.1000000000000001 -0.25 0.8 0.2000000000000001 -0.15 0.8 0.2000000000000001 -0.25 0.6000000000000001 0.3 -0.15 0.6000000000000001 0.3 -0.25 0.4 0.4 -0.15 0.4 0.4 -0.25 0 0.5 -0.15 0 0.5 -0.25 0.2 0.5 -0.15 0.2 0.5 0.25 1.4 -0.5 0.25 1.4 -0.4 0.25 1.2 -0.3 0.25 1 -0.2 0.25 0.8 -0.09999999999999998 0.25 0.6000000000000001 0 0.25 0.4 0.1000000000000001 0.25 0 0.2000000000000001 0.25 0.2 0.2000000000000001 0.15 1.6 -0.5 0.15 1.6 -0.4 0.15 1.4 -0.3 0.15 1.2 -0.2 0.15 1 -0.09999999999999998 0.15 0.8 0 0.15 0.6000000000000001 0.1000000000000001 0.15 0.4 0.2000000000000001 0.15 0 0.3 0.15 0.2 0.3 0.05000000000000004 1.8 -0.5 0.05000000000000004 1.8 -0.4 0.05000000000000004 1.6 -0.3 0.05000000000000004 1.4 -0.2 0.05000000000000004 1.2 -0.09999999999999998 0.05000000000000004 1 0 0.05000000000000004 0.8 0.1000000000000001 0.05000000000000004 0.6000000000000001 0.2000000000000001 0.05000000000000004 0.4 0.3 0.05000000000000004 0 0.4 0.05000000000000004 0.2 0.4 -0.04999999999999999 2 -0.5 -0.04999999999999999 2 -0.4 -0.04999999999999999 1.8 -0.3 -0.04999999999999999 1.6 -0.2 -0.04999999999999999 1.4 -0.09999999999999998 -0.04999999999999999 1.2 0 -0.04999999999999999 1 0.1000000000000001 -0.04999999999999999 0.8 0.2000000000000001 -0.04999999999999999 0.6000000000000001 0.3 -0.04999999999999999 0.4 0.4 -0.04999999999999999 0 0.5 -0.04999999999999999 0.2 0.5 -0.25 2.2 -0.5 -0.15 2.2 -0.5 -0.25 2.2 -0.4 -0.15 2.2 -0.4 -0.25 2 -0.3 -0.15 2 -0.3 -0.25 1.8 -0.2 -0.15 1.8 -0.2 -0.25 1.6 -0.09999999999999998 -0.15 1.6 -0.09999999999999998 -0.25 1.4 0 -0.15 1.4 0 -0.
[...]
      <CellData>
        <DataArray type="UInt8" Name="vtkGhostType" format="ascii" RangeMin="0" RangeMax="1">0 0 0 0 0 0 0 0 0 0 0 0 0 0 0 0 0 0 0 0 0 0 0 0 0 0 0 0 0 0 0 0 0 0 0 0 0 0 0 0 0 0 0 0 0 0 0 0 0 0 0 0 0 0 0 0 0 0 0 0 0 0 0 0 0 0 0 0 0 0 0 0 0 0 0 0 0 0 0 0 0 0 0 0 0 0 0 0 0 0 0 0 0 0 0 0 0 0 0 0 0 0 0 0 0 0 0 0 0 0 0 0 0 0 0 0 0 0 0 0 0 0 0 0 0 0 0 0 0 0 0 0 0 0 0 0 0 0 0 0 0 0 0 0 0 0 0 0 0 0 0 0 0 0 0 0 0 0 0 0 0 0 0 0 0 0 0 0 0 0 0 0 0 0 0 0 0 0 0 0 0 0 0 0 0 0 0 0 0 0 0 0 0 0 0 0 0 0 0 0 0 0 0 0 0 0 0 0 0 0 0 0 0 0 0 0 0 0 0 0 0 0 0 0 0 0 0 0 0 0 0 0 0 0 0 0 0 0 0 0 0 0 0 0 0 0 0 0 0 0 0 0 0 0 0 0 0 0 0 0 0 0 0 0 0 0 0 0 0 0 0 0 0 0 0 0 0 0 0 0 0 0 0 0 0 0 0 0 0 0 0 0 0 0 0 0 0 0 0 0 0 0 0 0 0 0 0 0 0 0 0 0 0 0 0 0 0 0 0 0 0 0 0 0 0 0 0 0 0 0 0 0 0 0 0 0 0 0 0 0 0 0 0 0 0 0 0 0 0 0 0 0 0 0 0 0 0 0 0 0 0 0 0 0 0 0 0 0 0 0 0 0 0 0 0 0 0 0 0 0 0 0 0 0 0 0 0 0 0 0 0 0 0 0 0 0 0 0 0 0 0 0 0 0 0 0 0 0 0 0 0 0 0 0 0 0 0 0 0 0 0 0 0 0 0 0 0 0 0 0 0 0 0 0 0 0 0 0 0 0 0 0 0 0 0 0 0 0 0 0 0 0 0 0 0 0 0 0 0 0 0 0 0 0 0 0 0 0 0 0 0 0 0 0 0 0 0 0 0 0 0 0 0 0 0 0 0 0 0 0 0 0 0 0 0 0 0 0 0 0 0 0 0 0 0 0 0 0 0 0 0 0 0 0 0 0 0 0 0 0 0 0 0 0 0 0 0 0 0 0 0 0 0 0 0 0 0 0 0 0 0 0 0 0 0 0 0 0 0 0 0 0 0 0 0 0 0 0 0 0 0 0 0 0 0 0 0 0 0 0 0 0 0 0 0 0 0 0 0 0 0 0 0 0 0 0 0 0 0 0 0 0 0 0 0 0 0 0 0 0 0 0 0 0 0 0 0 0 0 0 0 0 0 0 0 0 0 0 0 0 0 0 0 0 0 0 0 0 0 0 0 0 0 0 0 0 0 0 0 0 0 0 0 0 0 0 0 0 0 0 0 0 0 0 0 0 0 0 0 0 0 0 0 0 0 0 0 0 0 0 0 0 0 0 0 0 0 0 0 0 0 0 0 0 0 0 0 0 0 0 0 0 0 0 0 0 0 0 0 0 0 0 0 0 0 0 0 0 0 0 0 0 0 0 0 0 0 0 0 0 0 0 0 0 0 0 0 0 0 0 0 0 0 0 0 0 0 0 0 0 0 0 0 0 0 0 0 0 0 0 0 0 0 0 0 0 0 0 0 0 0 0 0 0 0 0 0 0 0 0 0 0 0 0 0 0 0 0 0 0 0 0 0 0 0 0 0 0 0 0 0 0 0 0 0 0 0 0 0 0 0 0 0 0 0 0 0 0 0 0 0 0 0 0 0 0 0 0 0 0 0 0 0 0 0 0 0 0 0 0 0 0 0 0 0 0 0 0 0 0 0 0 0 0 0 0 0 0 0 0 0 0 0 0 0 0 0 0 0 0 0 0 0 0 0 0 0 0 0 0 0 0 0 0 0 0 0 0 0 0 0 0 0 0 0 0 0 0 0 0 0 0 0 0 0 0 0 0 0 0 0 0 0 0 0 0 0 0 0 0 0 0 0 0 0 0 0 0 0 0 0 0 0 0 0 0 0 0 0 0 0 0 0 0 0 0 0 0 0 0 0 0 0 0 0 0 0 0 0 0 0 0 0 0 0 0 0 0 0 0 0 0 0 0 0 0 0 0 0 0 0 0 0 0 0 0 0 0 0 0 0 0 0 0 0 0 0 0 0 0 0 0 0 0 0 0 0 0 0 0 0 0 0 0 0 0 0 0 0 0 0 0 0 0 0 0 0 0 0 0 0 0 0 0 0 0 0 0 0 0 0 0 0 0 0 0 0 0 0 0 0 0 0 0 0 0 0 0 0 0 0 0 0 0 0 0 0 0 0 0 0 0 0 0 0 0 0 0 0 0 0 0 0 0 0 0 0 0 0 0 0 0 0 0 0 0 0 0 0 0 0 0 0 0 0 0 0 0 0 0 0 0 0 0 0 0 0 0 0 0 0 0 0 0 0 0 0 0 0 0 0 0 0 0 0 0 0 0 0 0 0 0 0 0 0 0 0 0 0 0 0 0 0 0 0 0 0 0 0 0 0 0 0 0 0 0 0 0 0 0 0 0 0 0 0 0 0 0 0 0 0 0 0 0 0 0 0 0 0 0 0 0 0 0 0 0 0 0 0 0 0 0 0 0 0 0 0 0 0 0 0 0 0 0 0 0 0 0 0 0 0 0 0 0 0 0 0 0 0 0 0 0 0 0 0 0 0 0 0 0 0 0 0 0 0 0 0 0 0 0 0 0 0 0 0 0 0 0 0 0 0 0 0 0 0 0 0 0 0 0 0 0 0 0 0 0 0 0 0 0 0 0 0 0 0 0 0 0 0 0 0 0 0 0 0 0 0 0 0 0 0 0 0 0 0 0 0 0 0 0 0 0 0 0 0 0 0 0 0 0 0 0 0 0 0 0 0 0 0 0 0 0 0 0 0 0 0 0 0 0 0 0 0 0 0 0 0 0 0 0 0 0 0 0 0 0 0 0 0 0 0 0 0 0 0 0 0 0 0 0 0 0 0 0 0 0 0 0 0 0 0 0 0 0 0 0 0 0 0 0 0 0 0 0 0 0 0 0 0 0 0 0 0 0 0 0 0 0 0 0 0 0 0 0 0 0 0 0 0 0 0 0 0 0 0 0 0 0 0 0 0 0 0 0 0 0 0 0 0 0 0 0 0 0 0 0 0 0 0 0 0 0 0 0 0 0 0 0 0 0 0 0 0 0 0 0 0 0 0 0 0 0 0 0 0 0 0 0 0 0 0 0 0 0 0 0 0 0 0 0 0 0 0 0 0 0 0 0 0 0 0 0 0 0 0 0 0 0 0 0 0 0 0 0 0 0 0 0 0 0 0 0 0 0 0 0 0 0 0 0 0 0 0 0 0 0 0 0 0 0 0 0 0 0 0 0 0 0 0 0 0 0 0 0 0 0 0 0 0 0 0 0 0 0 0 0 0 0 0 0 0 0 0 0 0 0 0 0 0 0 0 0 0 0 0 0 0 0 0 0 0 0 0 0 0 0 0 0 0 0 0 0 0 0 0 0 0 0 0 0 0 0 0 0 0 0 0 0 0 0 0 0 0 0 0 0 0 0 0 0 0 0 0 0 0 0 0 0 0 0 0 0 0 0 0 0 0 0 0 0 0 0 0 0 0 0 0 0 0 0 0 0 0 0 0 0 0 0 0 0 0 0 0 0 0 0 0 0 0 0 0 0 0 0 0 0 0 0 0 0 0 0 0 0 0 0 0 0 0 0 0 0 0 0 0 0 0 0 0 0 0 0 0 0 0 0 0 0 0 0 0 0 0 0 0 0 0 0 0 0 0 0 0 0 0 0 0 0 0 0 0 0 0 0 0 0 0 0 0 0 0 0 0 0 0 0 0 0 0 0 0 0 0 0 0 0 0 0 0 0 0 0 0 0 0 0 0 0 0 0 0 0 0 0 0 0 0 0 0 0 0 0 0 0 0 0 0 0 0 0 0 0 0 0 0 0 0 0 0 0 0 0 0 0 0 0 0 0 0 0 0 0 0 0 0 0 0 0 0 0 0 0 0 0 0 0 0 0 0 0 0 0 0 0 0 0 0 0 0 0 0 0 0 0 0 0 0 0 0 0 0 0 0 0 0 0 0 0 0 0 0 0 0 0 0 0 0 0 0 0 0 0 0 0 0 0 0 0 0 0 0 0 0 0 0 0 0 0 0 0 0 0 0 0 0 0 0 0 0 0 0 0 0 0 0 0 0 0 0 0 0 0 0 0 0 0 0 0 0 0 0 0 0 0 0 0 0 0 0 0 0 0 0 0 0 0 0 0 0 0 0 0 0 0 0 0 0 0 0 0 0 0 0 0 0 0 0 0 0 0 0 0 0 0 0 0 0 0 0 0 0 0 0 0 0 0 0 0 0 0 0 0 0 0 0 0 0 0 0 0 0 0 0 0 0 0 0 0 0 0 0 0 0 0 0 0 0 0 0 0 0 0 0 0 0 0 0 0 0 0 0 0 0 0 0 0 0 0 0 0 0 0 0 0 0 0 0 0 0 0 0 0 0 0 0 0 0 0 0 0 0 0 0 0 0 0 0 0 0 0 0 0 0 0 0 0 0 0 0 0 0 0 0 0 0 0 0 0 0 0 0 0 0 0 0 0 0 0 0 0 0 0 0 0 0 0 0 0 0 0 0 0 0 0 0 0 0 0 0 0 0 0 0 0 0 0 0 0 0 0 0 0 0 0 0 0 0 0 0 0 0 0 0 0 0 0 0 0 0 0 0 0 0 0 0 0 0 0 0 0 0 0 0 0 0 0 0 0 0 0 0 0 0 0 0 0 0 0 0 0 0 0 0 0 0 0 0 0 0 0 0 0 0 0 0 0 0 0 0 0 0 0 0 0 0 0 0 0 0 0 0 0 0 0 0 0 0 0 0 0 0 0 0 0 0 0 0 0 0 0 0 0 0 0 0 0 0 0 0 0 0 0 0 0 0 0 0 0 0 0 0 0 0 0 0 0 0 0 0 0 0 0 0 0 0 0 0 0 0 0 0 0 0 0 0 0 0 0 0 0 0 0 0 0 0 0 0 0 0 0 0 0 0 0 0 0 0 0 0 0 0 0 0 0 0 0 0 0 0 0 0 0 0 0 0 0 0 0 0 0 0 0 0 0 0 0 0 0 0 0 0 0 0 0 0 0 0 0 0 0 0 0 0 0 0 0 0 0 0 0 0 0 0 0 0 0 0 0 0 0 0 0 0 0 0 0 0 0 0 0 0 0 0 0 0 0 0 0 0 0 0 0 0 0 0 0 0 0 0 0 0 0 0 0 0 0 0 0 0 0 0 0 0 0 0 0 0 0 0 0 0 0 0 0 0 0 0 0 0 0 0 0 0 0 0 0 0 0 0 0 0 0 0 0 0 0 0 0 0 0 0 0 0 0 0 0 0 0 0 0 0 0 0 0 0 0 0 0 0 0 0 0 0 0 0 0 0 0 0 0 0 0 0 0 0 0 0 0 0 0 0 0 0 0 0 0 0 0 0 0 0 0 0 0 0 0 0 0 0 0 0 0 0 0 0 0 0 0 0 0 0 0 0 0 0 0 0 0 0 0 0 0 0 0 0 0 0 0 0 0 0 0 0 0 0 0 0 0 0 0 0 0 0 0 0 0 0 0 0 0 0 0 0 0 0 0 0 0 0 0 0 0 0 0 0 0 0 0 0 0 0 0 0 0 0 0 0 0 0 0 0 0 0 0 0 0 0 0 0 0 0 0 0 0 0 0 0 0 0 0 0 0 0 0 0 0 0 0 0 0 0 0 0 0 0 0 0 0 0 0 0 0 0 0 0 0 0 0 0 0 0 0 0 0 0 0 0 0 0 0 0 0 0 0 0 0 0 0 0 0 0 0 0 0 0 0 0 0 0 0 0 0 0 0 0 0 0 0 0 0 0 0 0 0 0 0 0 0 0 0 0 0 0 0 0 0 0 0 0 0 0 0 0 0 0 0 0 0 0 0 0 0 0 0 0 0 0 0 0 0 0 0 0 0 0 0 0 0 0 0 0 0 0 0 0 0 0 0 0 0 0 0 0 0 0 0 0 0 0 0 0 0 0 0 0 0 0 0 0 0 0 0 0 0 0 0 0 0 0 0 0 0 0 0 0 0 0 0 0 0 0 0 0 0 0 0 0 0 0 0 0 0 0 0 0 0 0 0 0 0 0 0 0 0 0 0 0 0 0 0 0 0 0 0 0 0 0 0 0 0 0 0 0 0 0 0 0 0 0 0 0 0 0 0 0 0 0 0 0 0 0 0 0 0 0 0 0 0 0 0 0 0 0 0 0 0 0 0 0 0 0 0 0 0 0 0 0 0 0 0 0 0 0 0 0 0 0 0 0 0 0 0 0 0 0 0 0 0 0 0 0 0 0 0 0 0 0 0 0 0 0 0 0 0 0 0 0 0 0 0 0 0 0 0 0 0 0 0 0 0 0 0 0 0 0 0 0 0 0 0 0 0 0 0 0 0 0 0 0 0 0 0 0 0 0 0 0 0 0 0 0 0 0 0 0 0 0 0 0 0 0 0 0 0 0 0 0 0 0 0 0 0 0 0 0 0 0 0 0 0 0 0 0 0 0 0 0 0 0 0 0 0 0 0 0 0 0 0 0 0 0 0 0 0 0 0 0 0 0 0 0 0 0 0 0 0 0 0 0 0 0 0 0 0 0 0 0 0 0 0 0 0 0 0 0 0 0 0 0 0 0 0 0 0 0 0 0 0 0 0 0 0 0 0 0 0 0 0 0 0 0 0 0 0 0 0 0 0 0 0 0 0 0 0 0 0 0 0 0 0 0 0 0 0 0 0 0 0 0 0 0 0 0 0 0 0 0 0 0 0 0 0 0 0 0 0 0 0 0 0 0 0 0 0 0 0 0 0 0 0 0 0 0 0 0 0 0 0 0 0 0 0 0 0 0 0 0 0 0 0 0 0 0 0 0 0 0 0 0 0 0 0 0 0 0 0 0 0 0 0 0 0 0 0 0 0 0 0 0 0 0 0 0 0 0 0 0 0 0 0 0 0 0 0 0 0 0 0 0 0 0 0 0 0 0 0 0 0 0 0 0 0 0 0 0 0 0 0 0 0 0 0 0 0 0 0 0 0 0 0 0 0 0 0 0 0 0 0 0 0 0 0 0 0 0 0 0 0 0 0 0 0 0 0 0 0 0 0 0 0 0 0 0 0 0 0 0 0 0 0 0 0 0 0 0 0 0 0 0 0 0 0 0 0 0 0 0 0 0 0 0 0 0 0 0 0 0 0 0 0 0 0 0 0 0 0 0 0 0 0 0 0 0 0 0 0 0 0 0 0 0 0 0 0 0 0 0 0 0 0 0 0 0 0 0 0 0 0 0 0 0 0 0 0 0 0 0 0 0 0 0 0 0 0 0 0 0 0 0 0 0 0 0 0 0 0 0 0 0 0 0 0 0 0 0 0 0 0 0 0 0 0 0 0 0 0 0 0 0 0 0 0 0 0 0 0 0 0 0 0 0 0 0 0 0 0 0 0 0 0 0 0 0 0 0 0 0 0 0 0 0 0 0 0 0 0 0 0 0 0 0 0 0 0 0 0 0 0 0 0 0 0 0 0 0 0 0 0 0 0 0 0 0 0 0 0 0 0 0 0 0 0 0 0 0 0 0 0 0 0 0 0 0 0 0 0 0 0 0 0 0 0 0 0 0 0 0 0 0 0 0 0 0 0 0 0 0 0 0 0 0 0 0 0 0 0 0 0 0 0 0 0 0 0 0 0 0 0 0 0 0 0 0 0 0 0 0 0 0 0 0 0 0 0 0 0 0 0 0 0 0 0 0 0 0 0 0 0 0 0 0 0 0 0 0 0 0 0 0 0 0 0 0 0 0 0 0 0 0 0 0 0 0 0 0 0 0 0 0 0 0 0 0 0 0 0 0 0 0 0 0 0 0 0 0 0 0 0 0 0 0 0 0 0 0 0 0 0 0 0 0 0 0 0 0 0 0 0 0 0 0 0 0 0 0 0 0 0 0 0 0 0 0 0 0 0 0 0 0 0 0 0 0 0 0 0 0 0 0 0 0 0 0 0 0 0 0 0 0 0 0 0 0 0 0 0 0 0 0 0 0 0 0 0 0 0 0 0 0 0 0 0 0 0 0 0 0 0 0 0 0 0 0 0 0 0 0 0 0 0 0 0 0 0 0 0 0 0 0 0 0 0 0 0 0 0 0 0 0 0 0 0 0 0 0 0 0 0 0 0 0 0 0 0 0 0 0 0 0 0 0 0 0 0 0 0 0 0 0 0 0 0 0 0 0 0 0 0 0 0 0 0 0 0 0 0 0 0 0 0 0 0 0 0 0 0 0 0 0 0 0 0 0 0 0 0 0 0 0 0 0 0 0 0 0 0 0 0 0 0 0 0 0 0 0 0 0 0 0 0 0 0 0 0 0 0 0 0 0 0 0 0 0 0 0 0 0 0 0 0 0 0 0 0 0 0 0 0 0 0 0 0 0 0 0 0 0 0 0 0 0 0 0 0 0 0 0 0 0 0 0 0 0 0 0 0 0 0 0 0 0 0 0 0 0 0 0 0 0 0 0 0 0 0 0 0 0 0 0 0 0 0 0 0 0 0 0 0 0 0 0 0 0 0 0 0 0 0 0 0 0 0 0 0 0 0 0 0 0 0 0 0 0 0 0 0 0 0 0 0 0 0 0 0 0 0 0 0 0 0 0 0 0 0 0 0 0 0 0 0 0 0 0 0 0 0 0 0 0 0 0 0 0 0 0 0 0 0 0 0 0 0 0 0 0 0 0 0 0 0 0 0 0 0 0 0 0 0 0 0 0 0 0 0 0 0 0 0 0 0 0 0 0 0 0 0 0 0 0 0 0 0 0 0 0 0 0 0 0 0 0 0 0 0 0 0 0 0 0 0 0 0 0 0 0 0 0 0 0 0 0 0 0 0 0 0 0 0 0 0 0 0 0 0 0 0 0 0 0 0 0 0 0 0 0 0 0 0 0 0 0 0 0 0 0 0 0 0 0 0 0 0 0 0 0 0 0 0 0 0 0 0 0 0 0 0 0 0 0 0 0 0 0 0 0 0 0 0 0 0 0 0 0 0 0 0 0 0 0 0 0 0 0 0 0 0 0 0 0 0 0 0 0 0 0 0 0 0 0 0 0 0 0 0 0 0 0 0 0 0 0 0 0 0 0 0 0 0 0 0 0 0 0 0 0 0 0 0 0 0 0 0 0 0 0 0 0 0 0 0 0 0 0 0 0 0 0 0 0 0 0 0 0 0 0 0 0 0 0 0 0 0 0 0 0 0 0 0 0 0 0 0 0 0 0 0 0 0 0 0 0 0 0 0 0 0 0 0 0 0 0 0 0 0 0 0 0 0 0 0 0 0 0 0 0 0 0 0 0 0 0 0 0 0 0 0 0 0 0 0 0 0 0 0 0 0 0 0 0 0 0 0 0 0 0 0 0 0 0 0 0 0 0 0 0 0 0 0 0 0 0 0 0 0 0 0 0 0 0 0 0 0 0 0 0 0 0 0 0 0 0 0 0 0 0 0 0 0 0 0 0 0 0 0 0 0 0 0 0 0 0 0 0 0 0 0 0 0 0 0 0 0 0 0 0 0 0 0 0 0 0 0 0 0 0 0 0 0 0 0 0 0 0 0 0 0 0 0 0 0 0 0 0 0 0 0 0 0 0 0 0 0 0 0 0 0 0 0 0 0 0 0 0 0 0 0 0 0 0 0 0 0 0 0 0 0 0 0 0 0 0 0 0 0 0 0 0 0 0 0 0 0 0 0 0 0 0 0 0 0 0 0 0 0 0 0 0 0 0 0 0 0 0 0 0 0 0 0 0 0 0 0 0 0 0 0 0 0 0 0 0 0 0 0 0 0 0 0 0 0 0 0 0 0 0 0 0 0 0 0 0 0 0 0 0 0 0 0 0 0 0 0 0 0 0 0 0 0 0 0 0 0 0 0 0 0 0 0 0 0 0 0 0 0 0 0 0 0 0 0 0 0 0 0 0 0 0 0 0 0 0 0 0 0 0 0 0 0 0 0 0 0 0 0 0 0 0 0 0 0 0 0 0 0 0 0 0 0 0 0 0 0 0 0 0 0 0 0 0 0 0 0 0 0 0 0 0 0 0 0 0 0 0 0 0 0 0 0 0 0 0 0 0 0 0 0 0 0 0 0 0 0 0 0 0 0 0 0 0 0 0 0 0 0 0 0 0 0 0 0 0 0 0 0 0 0 0 0 0 0 0 0 0 0 0 0 0 0 0 0 0 0 0 0 0 0 0 0 0 0 0 0 0 0 0 0 0 0 0 0 0 0 0 0 0 0 0 0 0 0 0 0 0 0 0 0 0 0 0 0 0 0 0 0 0 0 0 0 0 0 0 0 0 0 0 0 0 0 0 0 0 0 0 0 0 0 0 0 0 0 0 0 0 0 0 0 0 0 0 0 0 0 0 0 0 0 0 0 0 0 0 0 0 0 0 0 0 0 0 0 0 0 0 0 0 0 0 0 0 0 0 0 0 0 0 0 0 0 0 0 0 0 0 0 0 0 0 0 0 0 0 0 0 0 0 0 0 0 0 0 0 0 0 0 0 0 0 0 0 0 0 0 0 0 0 0 0 0 0 0 0 0 0 0 0 0 0 0 0 0 0 0 0 0 0 0 0 0 0 0 0 0 0 0 0 0 0 0 0 0 0 0 0 0 0 0 0 0 0 0 0 0 0 0 0 0 0 0 0 0 0 0 0 0 0 0 0 0 0 0 0 0 0 0 0 0 0 0 0 0 0 0 0 0 0 0 0 0 0 0 0 0 0 0 0 0 0 0 0 0 0 0 0 0 0 0 0 0 0 0 0 0 0 0 0 0 0 0 0 0 0 0 0 0 0 0 0 0 0 0 0 0 0 0 0 0 0 0 0 0 0 0 0 0 0 0 0 0 0 0 0 0 0 0 0 0 0 0 0 0 0 0 0 0 0 0 0 0 0 0 0 0 0 0 0 0 0 0 0 0 0 0 0 0 0 0 0 0 0 0 0 0 0 0 0 0 0 0 0 0 0 0 0 0 0 0 0 0 0 0 0 0 0 0 0 0 0 0 0 0 0 0 0 0 0 0 0 0 0 0 0 0 0 0 0 0 0 0 0 0 </DataArray>